ITEM: TIMESTEP
0
ITEM: NUMBER OF ATOMS
22
ITEM: BOX BOUNDS ff ff ff
0.0 224.0
0.0 112.0
0.0 56.0
ITEM: ATOMS id x y z radius ColorR ColorG ColorB
0 56.0 56.0 0.0 2.85 255.0 255.0 255.0
1 168.0130266689 56.0130266689 0.0 2.85 0.0 1.0 1.0
2 174.3983128317 53.1269780762 0.0 2.85 0.4980392157 1.0 0.831372549
3 174.4137234658 58.8723887103 0.0 2.85 0.2705882353 0.5450980392 0.4549019608
4 180.8038017268 50.2611322157 0.0 2.85 0.8901960784 0.8117647059 0.3411764706
5 180.8221877591 56.009518248 0.0 2.85 0.0 0.0 1.0
6 180.8146281448 61.7319586337 0.0 2.85 0.5411764706 0.168627451 0.8862745098
7 187.2318951471 47.4178908805 0.0 2.85 0.6470588235 0.1647058824 0.1647058824
8 187.2118307275 53.1278264609 0.0 2.85 1.0 0.3803921569 0.0117647059
9 187.2229004178 58.8688961512 0.0 2.85 0.4980392157 1.0 0.0
10 187.2327677944 64.6087635278 0.0 2.85 1.0 0.4470588235 0.337254902
11 193.623135576 44.5377965538 0.0 2.85 1.0 0.0784313725 0.5764705882
12 193.6153753454 50.2600363233 0.0 2.85 1.0 0.7333333333 1.0
13 193.6280575218 56.0027184996 0.0 2.85 1.0 1.0 0.0
14 193.6392323282 61.7438933061 0.0 2.85 1.0 0.0 0.0
15 193.6260137218 67.4606746996 0.0 2.85 0.5450980392 0.5137254902 0.4705882353
16 0.0 112.0 0.0 5.7 0.0 0.0 0.0
17 112.0 112.0 0.0 5.7 0.0 0.0 0.0
18 224.0 112.0 0.0 5.7 0.0 0.0 0.0
19 0.0 0.0 0.0 5.7 0.0 0.0 0.0
20 112.0 0.0 0.0 5.7 0.0 0.0 0.0
21 224.0 0.0 0.0 5.7 0.0 0.0 0.0
ITEM: TIMESTEP
1
ITEM: NUMBER OF ATOMS
22
ITEM: BOX BOUNDS ff ff ff
0.0 224.0
0.0 112.0
0.0 56.0
ITEM: ATOMS id x y z radius ColorR ColorG ColorB
0 162.3130415543 56.0 0.0 2.85 255.0 255.0 255.0
1 168.0130266689 56.0130266689 0.0 2.85 0.0 1.0 1.0
2 174.3983128317 53.1269780762 0.0 2.85 0.4980392157 1.0 0.831372549
3 174.4137234658 58.8723887103 0.0 2.85 0.2705882353 0.5450980392 0.4549019608
4 180.8038017268 50.2611322157 0.0 2.85 0.8901960784 0.8117647059 0.3411764706
5 180.8221877591 56.009518248 0.0 2.85 0.0 0.0 1.0
6 180.8146281448 61.7319586337 0.0 2.85 0.5411764706 0.168627451 0.8862745098
7 187.2318951471 47.4178908805 0.0 2.85 0.6470588235 0.1647058824 0.1647058824
8 187.2118307275 53.1278264609 0.0 2.85 1.0 0.3803921569 0.0117647059
9 187.2229004178 58.8688961512 0.0 2.85 0.4980392157 1.0 0.0
10 187.2327677944 64.6087635278 0.0 2.85 1.0 0.4470588235 0.337254902
11 193.623135576 44.5377965538 0.0 2.85 1.0 0.0784313725 0.5764705882
12 193.6153753454 50.2600363233 0.0 2.85 1.0 0.7333333333 1.0
13 193.6280575218 56.0027184996 0.0 2.85 1.0 1.0 0.0
14 193.6392323282 61.7438933061 0.0 2.85 1.0 0.0 0.0
15 193.6260137218 67.4606746996 0.0 2.85 0.5450980392 0.5137254902 0.4705882353
16 0.0 112.0 0.0 5.7 0.0 0.0 0.0
17 112.0 112.0 0.0 5.7 0.0 0.0 0.0
18 224.0 112.0 0.0 5.7 0.0 0.0 0.0
19 0.0 0.0 0.0 5.7 0.0 0.0 0.0
20 112.0 0.0 0.0 5.7 0.0 0.0 0.0
21 224.0 0.0 0.0 5.7 0.0 0.0 0.0
ITEM: TIMESTEP
2
ITEM: NUMBER OF ATOMS
22
ITEM: BOX BOUNDS ff ff ff
0.0 224.0
0.0 112.0
0.0 56.0
ITEM: ATOMS id x y z radius ColorR ColorG ColorB
0 162.3130492208 55.9966454519 0.0 2.85 255.0 255.0 255.0
1 169.4808519696 56.016381217 0.0 2.85 0.0 1.0 1.0
2 174.3983128317 53.1269780762 0.0 2.85 0.4980392157 1.0 0.831372549
3 174.4137234658 58.8723887103 0.0 2.85 0.2705882353 0.5450980392 0.4549019608
4 180.8038017268 50.2611322157 0.0 2.85 0.8901960784 0.8117647059 0.3411764706
5 180.8221877591 56.009518248 0.0 2.85 0.0 0.0 1.0
6 180.8146281448 61.7319586337 0.0 2.85 0.5411764706 0.168627451 0.8862745098
7 187.2318951471 47.4178908805 0.0 2.85 0.6470588235 0.1647058824 0.1647058824
8 187.2118307275 53.1278264609 0.0 2.85 1.0 0.3803921569 0.0117647059
9 187.2229004178 58.8688961512 0.0 2.85 0.4980392157 1.0 0.0
10 187.2327677944 64.6087635278 0.0 2.85 1.0 0.4470588235 0.337254902
11 193.623135576 44.5377965538 0.0 2.85 1.0 0.0784313725 0.5764705882
12 193.6153753454 50.2600363233 0.0 2.85 1.0 0.7333333333 1.0
13 193.6280575218 56.0027184996 0.0 2.85 1.0 1.0 0.0
14 193.6392323282 61.7438933061 0.0 2.85 1.0 0.0 0.0
15 193.6260137218 67.4606746996 0.0 2.85 0.5450980392 0.5137254902 0.4705882353
16 0.0 112.0 0.0 5.7 0.0 0.0 0.0
17 112.0 112.0 0.0 5.7 0.0 0.0 0.0
18 224.0 112.0 0.0 5.7 0.0 0.0 0.0
19 0.0 0.0 0.0 5.7 0.0 0.0 0.0
20 112.0 0.0 0.0 5.7 0.0 0.0 0.0
21 224.0 0.0 0.0 5.7 0.0 0.0 0.0
ITEM: TIMESTEP
3
ITEM: NUMBER OF ATOMS
22
ITEM: BOX BOUNDS ff ff ff
0.0 224.0
0.0 112.0
0.0 56.0
ITEM: ATOMS id x y z radius ColorR ColorG ColorB
0 162.313049263 55.9966269632 0.0 2.85 255.0 255.0 255.0
1 169.4828749858 56.0128870809 0.0 2.85 0.0 1.0 1.0
2 174.3983128317 53.1269780762 0.0 2.85 0.4980392157 1.0 0.831372549
3 174.4197904412 58.8759013352 0.0 2.85 0.2705882353 0.5450980392 0.4549019608
4 180.8038017268 50.2611322157 0.0 2.85 0.8901960784 0.8117647059 0.3411764706
5 180.8221877591 56.009518248 0.0 2.85 0.0 0.0 1.0
6 180.8146281448 61.7319586337 0.0 2.85 0.5411764706 0.168627451 0.8862745098
7 187.2318951471 47.4178908805 0.0 2.85 0.6470588235 0.1647058824 0.1647058824
8 187.2118307275 53.1278264609 0.0 2.85 1.0 0.3803921569 0.0117647059
9 187.2229004178 58.8688961512 0.0 2.85 0.4980392157 1.0 0.0
10 187.2327677944 64.6087635278 0.0 2.85 1.0 0.4470588235 0.337254902
11 193.623135576 44.5377965538 0.0 2.85 1.0 0.0784313725 0.5764705882
12 193.6153753454 50.2600363233 0.0 2.85 1.0 0.7333333333 1.0
13 193.6280575218 56.0027184996 0.0 2.85 1.0 1.0 0.0
14 193.6392323282 61.7438933061 0.0 2.85 1.0 0.0 0.0
15 193.6260137218 67.4606746996 0.0 2.85 0.5450980392 0.5137254902 0.4705882353
16 0.0 112.0 0.0 5.7 0.0 0.0 0.0
17 112.0 112.0 0.0 5.7 0.0 0.0 0.0
18 224.0 112.0 0.0 5.7 0.0 0.0 0.0
19 0.0 0.0 0.0 5.7 0.0 0.0 0.0
20 112.0 0.0 0.0 5.7 0.0 0.0 0.0
21 224.0 0.0 0.0 5.7 0.0 0.0 0.0
ITEM: TIMESTEP
4
ITEM: NUMBER OF ATOMS
22
ITEM: BOX BOUNDS ff ff ff
0.0 224.0
0.0 112.0
0.0 56.0
ITEM: ATOMS id x y z radius ColorR ColorG ColorB
0 162.3130571738 55.9931655161 0.0 2.85 255.0 255.0 255.0
1 169.2943452676 55.6917729672 0.0 2.85 0.0 1.0 1.0
2 174.9655896585 52.7939234523 0.0 2.85 0.4980392157 1.0 0.831372549
3 175.5556436208 59.5335315197 0.0 2.85 0.2705882353 0.5450980392 0.4549019608
4 180.8038017268 50.2611322157 0.0 2.85 0.8901960784 0.8117647059 0.3411764706
5 180.8221877591 56.009518248 0.0 2.85 0.0 0.0 1.0
6 180.8146281448 61.7319586337 0.0 2.85 0.5411764706 0.168627451 0.8862745098
7 187.2318951471 47.4178908805 0.0 2.85 0.6470588235 0.1647058824 0.1647058824
8 187.2118307275 53.1278264609 0.0 2.85 1.0 0.3803921569 0.0117647059
9 187.2229004178 58.8688961512 0.0 2.85 0.4980392157 1.0 0.0
10 187.2327677944 64.6087635278 0.0 2.85 1.0 0.4470588235 0.337254902
11 193.623135576 44.5377965538 0.0 2.85 1.0 0.0784313725 0.5764705882
12 193.6153753454 50.2600363233 0.0 2.85 1.0 0.7333333333 1.0
13 193.6280575218 56.0027184996 0.0 2.85 1.0 1.0 0.0
14 193.6392323282 61.7438933061 0.0 2.85 1.0 0.0 0.0
15 193.6260137218 67.4606746996 0.0 2.85 0.5450980392 0.5137254902 0.4705882353
16 0.0 112.0 0.0 5.7 0.0 0.0 0.0
17 112.0 112.0 0.0 5.7 0.0 0.0 0.0
18 224.0 112.0 0.0 5.7 0.0 0.0 0.0
19 0.0 0.0 0.0 5.7 0.0 0.0 0.0
20 112.0 0.0 0.0 5.7 0.0 0.0 0.0
21 224.0 0.0 0.0 5.7 0.0 0.0 0.0
ITEM: TIMESTEP
5
ITEM: NUMBER OF ATOMS
22
ITEM: BOX BOUNDS ff ff ff
0.0 224.0
0.0 112.0
0.0 56.0
ITEM: ATOMS id x y z radius ColorR ColorG ColorB
0 162.3130652245 55.9896428243 0.0 2.85 255.0 255.0 255.0
1 169.1024798153 55.3649772491 0.0 2.85 0.0 1.0 1.0
2 175.5429035483 52.4549759557 0.0 2.85 0.4980392157 1.0 0.831372549
3 175.4894413568 59.6918977805 0.0 2.85 0.2705882353 0.5450980392 0.4549019608
4 180.8038017268 50.2611322157 0.0 2.85 0.8901960784 0.8117647059 0.3411764706
5 180.8221877591 56.009518248 0.0 2.85 0.0 0.0 1.0
6 182.0367807072 62.2428582795 0.0 2.85 0.5411764706 0.168627451 0.8862745098
7 187.2318951471 47.4178908805 0.0 2.85 0.6470588235 0.1647058824 0.1647058824
8 187.2118307275 53.1278264609 0.0 2.85 1.0 0.3803921569 0.0117647059
9 187.2229004178 58.8688961512 0.0 2.85 0.4980392157 1.0 0.0
10 187.2327677944 64.6087635278 0.0 2.85 1.0 0.4470588235 0.337254902
11 193.623135576 44.5377965538 0.0 2.85 1.0 0.0784313725 0.5764705882
12 193.6153753454 50.2600363233 0.0 2.85 1.0 0.7333333333 1.0
13 193.6280575218 56.0027184996 0.0 2.85 1.0 1.0 0.0
14 193.6392323282 61.7438933061 0.0 2.85 1.0 0.0 0.0
15 193.6260137218 67.4606746996 0.0 2.85 0.5450980392 0.5137254902 0.4705882353
16 0.0 112.0 0.0 5.7 0.0 0.0 0.0
17 112.0 112.0 0.0 5.7 0.0 0.0 0.0
18 224.0 112.0 0.0 5.7 0.0 0.0 0.0
19 0.0 0.0 0.0 5.7 0.0 0.0 0.0
20 112.0 0.0 0.0 5.7 0.0 0.0 0.0
21 224.0 0.0 0.0 5.7 0.0 0.0 0.0
ITEM: TIMESTEP
6
ITEM: NUMBER OF ATOMS
22
ITEM: BOX BOUNDS ff ff ff
0.0 224.0
0.0 112.0
0.0 56.0
ITEM: ATOMS id x y z radius ColorR ColorG ColorB
0 162.3130652809 55.989618154 0.0 2.85 255.0 255.0 255.0
1 169.1011361339 55.3626886175 0.0 2.85 0.0 1.0 1.0
2 175.5426592409 52.4543900997 0.0 2.85 0.4980392157 1.0 0.831372549
3 175.4889777259 59.6930068587 0.0 2.85 0.2705882353 0.5450980392 0.4549019608
4 180.8080891066 50.2593443382 0.0 2.85 0.8901960784 0.8117647059 0.3411764706
5 180.8221877591 56.009518248 0.0 2.85 0.0 0.0 1.0
6 182.0453397449 62.2464362365 0.0 2.85 0.5411764706 0.168627451 0.8862745098
7 187.2318951471 47.4178908805 0.0 2.85 0.6470588235 0.1647058824 0.1647058824
8 187.2118307275 53.1278264609 0.0 2.85 1.0 0.3803921569 0.0117647059
9 187.2229004178 58.8688961512 0.0 2.85 0.4980392157 1.0 0.0
10 187.2327677944 64.6087635278 0.0 2.85 1.0 0.4470588235 0.337254902
11 193.623135576 44.5377965538 0.0 2.85 1.0 0.0784313725 0.5764705882
12 193.6153753454 50.2600363233 0.0 2.85 1.0 0.7333333333 1.0
13 193.6280575218 56.0027184996 0.0 2.85 1.0 1.0 0.0
14 193.6392323282 61.7438933061 0.0 2.85 1.0 0.0 0.0
15 193.6260137218 67.4606746996 0.0 2.85 0.5450980392 0.5137254902 0.4705882353
16 0.0 112.0 0.0 5.7 0.0 0.0 0.0
17 112.0 112.0 0.0 5.7 0.0 0.0 0.0
18 224.0 112.0 0.0 5.7 0.0 0.0 0.0
19 0.0 0.0 0.0 5.7 0.0 0.0 0.0
20 112.0 0.0 0.0 5.7 0.0 0.0 0.0
21 224.0 0.0 0.0 5.7 0.0 0.0 0.0
ITEM: TIMESTEP
7
ITEM: NUMBER OF ATOMS
22
ITEM: BOX BOUNDS ff ff ff
0.0 224.0
0.0 112.0
0.0 56.0
ITEM: ATOMS id x y z radius ColorR ColorG ColorB
0 162.313073189 55.9861578346 0.0 2.85 255.0 255.0 255.0
1 168.9126678303 55.0416791087 0.0 2.85 0.0 1.0 1.0
2 175.5083920378 52.3722163957 0.0 2.85 0.4980392157 1.0 0.831372549
3 175.423947632 59.8485691038 0.0 2.85 0.2705882353 0.5450980392 0.4549019608
4 181.4094483427 50.0085719129 0.0 2.85 0.8901960784 0.8117647059 0.3411764706
5 180.8221877591 56.009518248 0.0 2.85 0.0 0.0 1.0
6 182.0622574124 62.2092867765 0.0 2.85 0.5411764706 0.168627451 0.8862745098
7 187.2318951471 47.4178908805 0.0 2.85 0.6470588235 0.1647058824 0.1647058824
8 187.2118307275 53.1278264609 0.0 2.85 1.0 0.3803921569 0.0117647059
9 187.2229004178 58.8688961512 0.0 2.85 0.4980392157 1.0 0.0
10 188.4163633893 65.1477667003 0.0 2.85 1.0 0.4470588235 0.337254902
11 193.623135576 44.5377965538 0.0 2.85 1.0 0.0784313725 0.5764705882
12 193.6153753454 50.2600363233 0.0 2.85 1.0 0.7333333333 1.0
13 193.6280575218 56.0027184996 0.0 2.85 1.0 1.0 0.0
14 193.6392323282 61.7438933061 0.0 2.85 1.0 0.0 0.0
15 193.6260137218 67.4606746996 0.0 2.85 0.5450980392 0.5137254902 0.4705882353
16 0.0 112.0 0.0 5.7 0.0 0.0 0.0
17 112.0 112.0 0.0 5.7 0.0 0.0 0.0
18 224.0 112.0 0.0 5.7 0.0 0.0 0.0
19 0.0 0.0 0.0 5.7 0.0 0.0 0.0
20 112.0 0.0 0.0 5.7 0.0 0.0 0.0
21 224.0 0.0 0.0 5.7 0.0 0.0 0.0
ITEM: TIMESTEP
8
ITEM: NUMBER OF ATOMS
22
ITEM: BOX BOUNDS ff ff ff
0.0 224.0
0.0 112.0
0.0 56.0
ITEM: ATOMS id x y z radius ColorR ColorG ColorB
0 162.3130813576 55.9825835862 0.0 2.85 255.0 255.0 255.0
1 168.7179943185 54.7101005504 0.0 2.85 0.0 1.0 1.0
2 175.4729966072 52.2873371708 0.0 2.85 0.4980392157 1.0 0.831372549
3 175.3567764604 60.0092531444 0.0 2.85 0.2705882353 0.5450980392 0.4549019608
4 182.0306069784 49.7495429528 0.0 2.85 0.8901960784 0.8117647059 0.3411764706
5 180.8221877591 56.009518248 0.0 2.85 0.0 0.0 1.0
6 182.0797320843 62.1709141923 0.0 2.85 0.5411764706 0.168627451 0.8862745098
7 187.2318951471 47.4178908805 0.0 2.85 0.6470588235 0.1647058824 0.1647058824
8 187.2118307275 53.1278264609 0.0 2.85 1.0 0.3803921569 0.0117647059
9 187.2229004178 58.8688961512 0.0 2.85 0.4980392157 1.0 0.0
10 188.4111815548 65.1594383905 0.0 2.85 1.0 0.4470588235 0.337254902
11 193.623135576 44.5377965538 0.0 2.85 1.0 0.0784313725 0.5764705882
12 193.6153753454 50.2600363233 0.0 2.85 1.0 0.7333333333 1.0
13 193.6280575218 56.0027184996 0.0 2.85 1.0 1.0 0.0
14 193.6392323282 61.7438933061 0.0 2.85 1.0 0.0 0.0
15 194.8537603411 68.0057525447 0.0 2.85 0.5450980392 0.5137254902 0.4705882353
16 0.0 112.0 0.0 5.7 0.0 0.0 0.0
17 112.0 112.0 0.0 5.7 0.0 0.0 0.0
18 224.0 112.0 0.0 5.7 0.0 0.0 0.0
19 0.0 0.0 0.0 5.7 0.0 0.0 0.0
20 112.0 0.0 0.0 5.7 0.0 0.0 0.0
21 224.0 0.0 0.0 5.7 0.0 0.0 0.0
ITEM: TIMESTEP
9
ITEM: NUMBER OF ATOMS
22
ITEM: BOX BOUNDS ff ff ff
0.0 224.0
0.0 112.0
0.0 56.0
ITEM: ATOMS id x y z radius ColorR ColorG ColorB
0 162.3130972656 55.9756228302 0.0 2.85 255.0 255.0 255.0
1 168.3388727088 54.0643599169 0.0 2.85 0.0 1.0 1.0
2 175.4040649252 52.122037084 0.0 2.85 0.4980392157 1.0 0.831372549
3 175.2259623478 60.3221811416 0.0 2.85 0.2705882353 0.5450980392 0.4549019608
4 182.0447286377 49.7810445737 0.0 2.85 0.8901960784 0.8117647059 0.3411764706
5 180.8221877591 56.009518248 0.0 2.85 0.0 0.0 1.0
6 182.113763554 62.0961845809 0.0 2.85 0.5411764706 0.168627451 0.8862745098
7 188.4274638033 46.8819370851 0.0 2.85 0.6470588235 0.1647058824 0.1647058824
8 187.2118307275 53.1278264609 0.0 2.85 1.0 0.3803921569 0.0117647059
9 187.2229004178 58.8688961512 0.0 2.85 0.4980392157 1.0 0.0
10 188.4010900667 65.1821687043 0.0 2.85 1.0 0.4470588235 0.337254902
11 193.623135576 44.5377965538 0.0 2.85 1.0 0.0784313725 0.5764705882
12 193.6153753454 50.2600363233 0.0 2.85 1.0 0.7333333333 1.0
13 193.6280575218 56.0027184996 0.0 2.85 1.0 1.0 0.0
14 193.6392323282 61.7438933061 0.0 2.85 1.0 0.0 0.0
15 197.2447650053 69.0672774958 0.0 2.85 0.5450980392 0.5137254902 0.4705882353
16 0.0 112.0 0.0 5.7 0.0 0.0 0.0
17 112.0 112.0 0.0 5.7 0.0 0.0 0.0
18 224.0 112.0 0.0 5.7 0.0 0.0 0.0
19 0.0 0.0 0.0 5.7 0.0 0.0 0.0
20 112.0 0.0 0.0 5.7 0.0 0.0 0.0
21 224.0 0.0 0.0 5.7 0.0 0.0 0.0
ITEM: TIMESTEP
10
ITEM: NUMBER OF ATOMS
22
ITEM: BOX BOUNDS ff ff ff
0.0 224.0
0.0 112.0
0.0 56.0
ITEM: ATOMS id x y z radius ColorR ColorG ColorB
0 162.313177782 55.940391844 0.0 2.85 255.0 255.0 255.0
1 166.4199966168 50.7960253475 0.0 2.85 0.0 1.0 1.0
2 175.0551759321 51.2853915951 0.0 2.85 0.4980392157 1.0 0.831372549
3 174.5638632567 61.9060266333 0.0 2.85 0.2705882353 0.5450980392 0.4549019608
4 182.1162036309 49.9404860447 0.0 2.85 0.8901960784 0.8117647059 0.3411764706
5 180.8221877591 56.009518248 0.0 2.85 0.0 0.0 1.0
6 182.286009535 61.7179501014 0.0 2.85 0.5411764706 0.168627451 0.8862745098
7 188.434015405 46.8964583869 0.0 2.85 0.6470588235 0.1647058824 0.1647058824
8 187.2118307275 53.1278264609 0.0 2.85 1.0 0.3803921569 0.0117647059
9 187.2229004178 58.8688961512 0.0 2.85 0.4980392157 1.0 0.0
10 188.3500132754 65.2972153136 0.0 2.85 1.0 0.4470588235 0.337254902
11 199.6678035612 41.8106128821 0.0 2.85 1.0 0.0784313725 0.5764705882
12 193.6153753454 50.2600363233 0.0 2.85 1.0 0.7333333333 1.0
13 193.6280575218 56.0027184996 0.0 2.85 1.0 1.0 0.0
14 193.6392323282 61.7438933061 0.0 2.85 1.0 0.0 0.0
15 209.3465327975 74.4400518179 0.0 2.85 0.5450980392 0.5137254902 0.4705882353
16 0.0 112.0 0.0 5.7 0.0 0.0 0.0
17 112.0 112.0 0.0 5.7 0.0 0.0 0.0
18 224.0 112.0 0.0 5.7 0.0 0.0 0.0
19 0.0 0.0 0.0 5.7 0.0 0.0 0.0
20 112.0 0.0 0.0 5.7 0.0 0.0 0.0
21 224.0 0.0 0.0 5.7 0.0 0.0 0.0
ITEM: TIMESTEP
11
ITEM: NUMBER OF ATOMS
22
ITEM: BOX BOUNDS ff ff ff
0.0 224.0
0.0 112.0
0.0 56.0
ITEM: ATOMS id x y z radius ColorR ColorG ColorB
0 162.3131976312 55.931706578 0.0 2.85 255.0 255.0 255.0
1 165.9469485715 49.9903040787 0.0 2.85 0.0 1.0 1.0
2 174.9691665973 51.0791388231 0.0 2.85 0.4980392157 1.0 0.831372549
3 174.4006402731 62.2964817633 0.0 2.85 0.2705882353 0.5450980392 0.4549019608
4 182.1338238962 49.9797921138 0.0 2.85 0.8901960784 0.8117647059 0.3411764706
5 180.8221877591 56.009518248 0.0 2.85 0.0 0.0 1.0
6 182.2562513957 61.6663846734 0.0 2.85 0.5411764706 0.168627451 0.8862745098
7 188.4356305288 46.9000382291 0.0 2.85 0.6470588235 0.1647058824 0.1647058824
8 187.2118307275 53.1278264609 0.0 2.85 1.0 0.3803921569 0.0117647059
9 187.2951212387 58.8272178925 0.0 2.85 0.4980392157 1.0 0.0
10 188.3374216461 65.3255770061 0.0 2.85 1.0 0.4470588235 0.337254902
11 201.1579562538 41.1382980252 0.0 2.85 1.0 0.0784313725 0.5764705882
12 193.6153753454 50.2600363233 0.0 2.85 1.0 0.7333333333 1.0
13 193.6280575218 56.0027184996 0.0 2.85 1.0 1.0 0.0
14 193.6392323282 61.7438933061 0.0 2.85 1.0 0.0 0.0
15 212.3299029187 75.7645669346 0.0 2.85 0.5450980392 0.5137254902 0.4705882353
16 0.0 112.0 0.0 5.7 0.0 0.0 0.0
17 112.0 112.0 0.0 5.7 0.0 0.0 0.0
18 224.0 112.0 0.0 5.7 0.0 0.0 0.0
19 0.0 0.0 0.0 5.7 0.0 0.0 0.0
20 112.0 0.0 0.0 5.7 0.0 0.0 0.0
21 224.0 0.0 0.0 5.7 0.0 0.0 0.0
ITEM: TIMESTEP
12
ITEM: NUMBER OF ATOMS
22
ITEM: BOX BOUNDS ff ff ff
0.0 224.0
0.0 112.0
0.0 56.0
ITEM: ATOMS id x y z radius ColorR ColorG ColorB
0 162.3132447241 55.9111004659 0.0 2.85 255.0 255.0 255.0
1 164.824624727 48.0787008051 0.0 2.85 0.0 1.0 1.0
2 174.7651062946 50.5897965537 0.0 2.85 0.4980392157 1.0 0.831372549
3 174.0133877557 63.2228508856 0.0 2.85 0.2705882353 0.5450980392 0.4549019608
4 182.1756286221 50.0730472048 0.0 2.85 0.8901960784 0.8117647059 0.3411764706
5 180.8221877591 56.009518248 0.0 2.85 0.0 0.0 1.0
6 182.1856491184 61.5440438033 0.0 2.85 0.5411764706 0.168627451 0.8862745098
7 188.4394624692 46.9085315358 0.0 2.85 0.6470588235 0.1647058824 0.1647058824
8 187.21042255 53.0314678886 0.0 2.85 1.0 0.3803921569 0.0117647059
9 187.4678759638 58.8246932669 0.0 2.85 0.4980392157 1.0 0.0
10 188.3075475438 65.3928661621 0.0 2.85 1.0 0.4470588235 0.337254902
11 204.693398193 39.5432063589 0.0 2.85 1.0 0.0784313725 0.5764705882
12 193.6153753454 50.2600363233 0.0 2.85 1.0 0.7333333333 1.0
13 193.6280575218 56.0027184996 0.0 2.85 1.0 1.0 0.0
14 193.6392323282 61.7438933061 0.0 2.85 1.0 0.0 0.0
15 219.4080579962 78.9070276479 0.0 2.85 0.5450980392 0.5137254902 0.4705882353
16 0.0 112.0 0.0 5.7 0.0 0.0 0.0
17 112.0 112.0 0.0 5.7 0.0 0.0 0.0
18 224.0 112.0 0.0 5.7 0.0 0.0 0.0
19 0.0 0.0 0.0 5.7 0.0 0.0 0.0
20 112.0 0.0 0.0 5.7 0.0 0.0 0.0
21 224.0 0.0 0.0 5.7 0.0 0.0 0.0
ITEM: TIMESTEP
13
ITEM: NUMBER OF ATOMS
22
ITEM: BOX BOUNDS ff ff ff
0.0 224.0
0.0 112.0
0.0 56.0
ITEM: ATOMS id x y z radius ColorR ColorG ColorB
0 162.3132563138 55.9060292783 0.0 2.85 255.0 255.0 255.0
1 164.5484195541 47.6082530684 0.0 2.85 0.0 1.0 1.0
2 174.7148868224 50.4693688654 0.0 2.85 0.4980392157 1.0 0.831372549
3 173.9180844713 63.4508313788 0.0 2.85 0.2705882353 0.5450980392 0.4549019608
4 182.1859168127 50.0959973887 0.0 2.85 0.8901960784 0.8117647059 0.3411764706
5 180.8142006493 55.9770971875 0.0 2.85 0.0 0.0 1.0
6 182.1762609275 61.5463566366 0.0 2.85 0.5411764706 0.168627451 0.8862745098
7 188.4404055141 46.9106217483 0.0 2.85 0.6470588235 0.1647058824 0.1647058824
8 187.2100759959 53.0077539345 0.0 2.85 1.0 0.3803921569 0.0117647059
9 187.5103910979 58.8240719537 0.0 2.85 0.4980392157 1.0 0.0
10 188.3001954932 65.4094260998 0.0 2.85 1.0 0.4470588235 0.337254902
11 205.5634744697 39.1506524881 0.0 2.85 1.0 0.0784313725 0.5764705882
12 193.6153753454 50.2600363233 0.0 2.85 1.0 0.7333333333 1.0
13 193.6280575218 56.0027184996 0.0 2.85 1.0 1.0 0.0
14 193.6392323282 61.7438933061 0.0 2.85 1.0 0.0 0.0
15 221.15 79.6803907985 0.0 2.85 0.5450980392 0.5137254902 0.4705882353
16 0.0 112.0 0.0 5.7 0.0 0.0 0.0
17 112.0 112.0 0.0 5.7 0.0 0.0 0.0
18 224.0 112.0 0.0 5.7 0.0 0.0 0.0
19 0.0 0.0 0.0 5.7 0.0 0.0 0.0
20 112.0 0.0 0.0 5.7 0.0 0.0 0.0
21 224.0 0.0 0.0 5.7 0.0 0.0 0.0
ITEM: TIMESTEP
14
ITEM: NUMBER OF ATOMS
22
ITEM: BOX BOUNDS ff ff ff
0.0 224.0
0.0 112.0
0.0 56.0
ITEM: ATOMS id x y z radius ColorR ColorG ColorB
0 162.3132947519 55.8892101957 0.0 2.85 255.0 255.0 255.0
1 163.6323584688 46.0479677923 0.0 2.85 0.0 1.0 1.0
2 174.5483291009 50.0699588265 0.0 2.85 0.4980392157 1.0 0.831372549
3 173.6020019402 64.2069506645 0.0 2.85 0.2705882353 0.5450980392 0.4549019608
4 182.2200385885 50.172113886 0.0 2.85 0.8901960784 0.8117647059 0.3411764706
5 180.7877106297 55.8695696147 0.0 2.85 0.0 0.0 1.0
6 182.1451240874 61.5540273716 0.0 2.85 0.5411764706 0.168627451 0.8862745098
7 188.4435332134 46.9175541394 0.0 2.85 0.6470588235 0.1647058824 0.1647058824
8 187.2089266159 52.9291043194 0.0 2.85 1.0 0.3803921569 0.0117647059
9 187.651396639 58.8220113085 0.0 2.85 0.4980392157 1.0 0.0
10 188.2758117089 65.4643487299 0.0 2.85 1.0 0.4470588235 0.337254902
11 208.4491663277 37.8487097286 0.0 2.85 1.0 0.0784313725 0.5764705882
12 193.6153753454 50.2600363233 0.0 2.85 1.0 0.7333333333 1.0
13 193.6280575218 56.0027184996 0.0 2.85 1.0 1.0 0.0
14 193.6392323282 61.7438933061 0.0 2.85 1.0 0.0 0.0
15 215.3726813995 82.2453242496 0.0 2.85 0.5450980392 0.5137254902 0.4705882353
16 0.0 112.0 0.0 5.7 0.0 0.0 0.0
17 112.0 112.0 0.0 5.7 0.0 0.0 0.0
18 224.0 112.0 0.0 5.7 0.0 0.0 0.0
19 0.0 0.0 0.0 5.7 0.0 0.0 0.0
20 112.0 0.0 0.0 5.7 0.0 0.0 0.0
21 224.0 0.0 0.0 5.7 0.0 0.0 0.0
ITEM: TIMESTEP
15
ITEM: NUMBER OF ATOMS
22
ITEM: BOX BOUNDS ff ff ff
0.0 224.0
0.0 112.0
0.0 56.0
ITEM: ATOMS id x y z radius ColorR ColorG ColorB
0 162.3133440339 55.8676462138 0.0 2.85 255.0 255.0 255.0
1 162.4578636938 44.0475041404 0.0 2.85 0.0 1.0 1.0
2 174.3347831085 49.5578696096 0.0 2.85 0.4980392157 1.0 0.831372549
3 173.1967480908 65.1763818132 0.0 2.85 0.2705882353 0.5450980392 0.4549019608
4 182.1451420744 50.2041378397 0.0 2.85 0.8901960784 0.8117647059 0.3411764706
5 180.7537474037 55.7317070044 0.0 2.85 0.0 0.0 1.0
6 182.1052031076 61.5638621284 0.0 2.85 0.5411764706 0.168627451 0.8862745098
7 188.4475432806 46.9264422553 0.0 2.85 0.6470588235 0.1647058824 0.1647058824
8 187.3260975014 52.89383262 0.0 2.85 1.0 0.3803921569 0.0117647059
9 187.8321818223 58.8193693264 0.0 2.85 0.4980392157 1.0 0.0
10 188.2445489167 65.5347658048 0.0 2.85 1.0 0.4470588235 0.337254902
11 212.148952361 36.1794706433 0.0 2.85 1.0 0.0784313725 0.5764705882
12 193.6153753454 50.2600363233 0.0 2.85 1.0 0.7333333333 1.0
13 193.6280575218 56.0027184996 0.0 2.85 1.0 1.0 0.0
14 193.6392323282 61.7438933061 0.0 2.85 1.0 0.0 0.0
15 207.9655001341 85.5338614274 0.0 2.85 0.5450980392 0.5137254902 0.4705882353
16 0.0 112.0 0.0 5.7 0.0 0.0 0.0
17 112.0 112.0 0.0 5.7 0.0 0.0 0.0
18 224.0 112.0 0.0 5.7 0.0 0.0 0.0
19 0.0 0.0 0.0 5.7 0.0 0.0 0.0
20 112.0 0.0 0.0 5.7 0.0 0.0 0.0
21 224.0 0.0 0.0 5.7 0.0 0.0 0.0
ITEM: TIMESTEP
16
ITEM: NUMBER OF ATOMS
22
ITEM: BOX BOUNDS ff ff ff
0.0 224.0
0.0 112.0
0.0 56.0
ITEM: ATOMS id x y z radius ColorR ColorG ColorB
0 162.31346393 55.8151841454 0.0 2.85 255.0 255.0 255.0
1 159.6004867197 39.1806636074 0.0 2.85 0.0 1.0 1.0
2 173.8152564024 48.312030149 0.0 2.85 0.4980392157 1.0 0.831372549
3 172.2108237232 67.5348684593 0.0 2.85 0.2705882353 0.5450980392 0.4549019608
4 182.0667021876 49.8697920633 0.0 2.85 0.8901960784 0.8117647059 0.3411764706
5 180.5673471898 55.8085625415 0.0 2.85 0.0 0.0 1.0
6 182.0080811019 61.5877886784 0.0 2.85 0.5411764706 0.168627451 0.8862745098
7 188.4572991976 46.9480657638 0.0 2.85 0.6470588235 0.1647058824 0.1647058824
8 187.6111574244 52.8080216449 0.0 2.85 1.0 0.3803921569 0.0117647059
9 188.2720061885 58.8129417636 0.0 2.85 0.4980392157 1.0 0.0
10 188.1684910367 65.7060804267 0.0 2.85 1.0 0.4470588235 0.337254902
11 221.15 32.1184518727 0.0 2.85 1.0 0.0784313725 0.5764705882
12 193.6153753454 50.2600363233 0.0 2.85 1.0 0.7333333333 1.0
13 193.6280575218 56.0027184996 0.0 2.85 1.0 1.0 0.0
14 193.6392323282 61.7438933061 0.0 2.85 1.0 0.0 0.0
15 189.9448927692 93.5343997107 0.0 2.85 0.5450980392 0.5137254902 0.4705882353
16 0.0 112.0 0.0 5.7 0.0 0.0 0.0
17 112.0 112.0 0.0 5.7 0.0 0.0 0.0
18 224.0 112.0 0.0 5.7 0.0 0.0 0.0
19 0.0 0.0 0.0 5.7 0.0 0.0 0.0
20 112.0 0.0 0.0 5.7 0.0 0.0 0.0
21 224.0 0.0 0.0 5.7 0.0 0.0 0.0
ITEM: TIMESTEP
17
ITEM: NUMBER OF ATOMS
22
ITEM: BOX BOUNDS ff ff ff
0.0 224.0
0.0 112.0
0.0 56.0
ITEM: ATOMS id x y z radius ColorR ColorG ColorB
0 162.3135712521 55.7682239941 0.0 2.85 255.0 255.0 255.0
1 157.0427748556 34.8242290576 0.0 2.85 0.0 1.0 1.0
2 173.3502146414 47.1968470989 0.0 2.85 0.4980392157 1.0 0.831372549
3 171.3282973801 69.6460107168 0.0 2.85 0.2705882353 0.5450980392 0.4549019608
4 181.9964886207 49.570510531 0.0 2.85 0.8901960784 0.8117647059 0.3411764706
5 180.4004955483 55.877357916 0.0 2.85 0.0 0.0 1.0
6 181.9211446882 61.6092059506 0.0 2.85 0.5411764706 0.168627451 0.8862745098
7 188.4660319707 46.9674215243 0.0 2.85 0.6470588235 0.1647058824 0.1647058824
8 187.8663219175 52.7312100269 0.0 2.85 1.0 0.3803921569 0.0117647059
9 188.6657043284 58.8071882863 0.0 2.85 0.4980392157 1.0 0.0
10 188.1004096657 65.8594285656 0.0 2.85 1.0 0.4470588235 0.337254902
11 213.0929299867 28.4833291768 0.0 2.85 1.0 0.0784313725 0.5764705882
12 193.6153753454 50.2600363233 0.0 2.85 1.0 0.7333333333 1.0
13 193.6280575218 56.0027184996 0.0 2.85 1.0 1.0 0.0
14 193.6392323282 61.7438933061 0.0 2.85 1.0 0.0 0.0
15 173.8141820958 100.6958879817 0.0 2.85 0.5450980392 0.5137254902 0.4705882353
16 0.0 112.0 0.0 5.7 0.0 0.0 0.0
17 112.0 112.0 0.0 5.7 0.0 0.0 0.0
18 224.0 112.0 0.0 5.7 0.0 0.0 0.0
19 0.0 0.0 0.0 5.7 0.0 0.0 0.0
20 112.0 0.0 0.0 5.7 0.0 0.0 0.0
21 224.0 0.0 0.0 5.7 0.0 0.0 0.0
ITEM: TIMESTEP
18
ITEM: NUMBER OF ATOMS
22
ITEM: BOX BOUNDS ff ff ff
0.0 224.0
0.0 112.0
0.0 56.0
ITEM: ATOMS id x y z radius ColorR ColorG ColorB
0 162.313598636 55.7562418261 0.0 2.85 255.0 255.0 255.0
1 156.3901591282 33.7126583047 0.0 2.85 0.0 1.0 1.0
2 173.2315564097 46.9123013658 0.0 2.85 0.4980392157 1.0 0.831372549
3 171.1031154198 70.1846814949 0.0 2.85 0.2705882353 0.5450980392 0.4549019608
4 181.9785732024 49.4941470291 0.0 2.85 0.8901960784 0.8117647059 0.3411764706
5 180.3579223379 55.8949114739 0.0 2.85 0.0 0.0 1.0
6 181.8989623339 61.6146706978 0.0 2.85 0.5411764706 0.168627451 0.8862745098
7 188.4682601908 46.9723602642 0.0 2.85 0.6470588235 0.1647058824 0.1647058824
8 187.9314286887 52.7116110757 0.0 2.85 1.0 0.3803921569 0.0117647059
9 188.6893931321 58.8491043059 0.0 2.85 0.4980392157 1.0 0.0
10 188.0830382901 65.8985562752 0.0 2.85 1.0 0.4470588235 0.337254902
11 211.0371196034 27.5558055274 0.0 2.85 1.0 0.0784313725 0.5764705882
12 193.6153753454 50.2600363233 0.0 2.85 1.0 0.7333333333 1.0
13 193.7048231913 55.9593344452 0.0 2.85 1.0 1.0 0.0
14 193.6392323282 61.7438933061 0.0 2.85 1.0 0.0 0.0
15 169.698333228 102.5231852402 0.0 2.85 0.5450980392 0.5137254902 0.4705882353
16 0.0 112.0 0.0 5.7 0.0 0.0 0.0
17 112.0 112.0 0.0 5.7 0.0 0.0 0.0
18 224.0 112.0 0.0 5.7 0.0 0.0 0.0
19 0.0 0.0 0.0 5.7 0.0 0.0 0.0
20 112.0 0.0 0.0 5.7 0.0 0.0 0.0
21 224.0 0.0 0.0 5.7 0.0 0.0 0.0
ITEM: TIMESTEP
19
ITEM: NUMBER OF ATOMS
22
ITEM: BOX BOUNDS ff ff ff
0.0 224.0
0.0 112.0
0.0 56.0
ITEM: ATOMS id x y z radius ColorR ColorG ColorB
0 162.3136211472 55.7463917367 0.0 2.85 255.0 255.0 255.0
1 155.8536682976 32.7988778187 0.0 2.85 0.0 1.0 1.0
2 173.1340119426 46.6783870265 0.0 2.85 0.4980392157 1.0 0.831372549
3 170.9180018042 70.6275024706 0.0 2.85 0.2705882353 0.5450980392 0.4549019608
4 181.9638456111 49.4313714678 0.0 2.85 0.8901960784 0.8117647059 0.3411764706
5 180.3229245037 55.9093415933 0.0 2.85 0.0 0.0 1.0
6 181.8807270552 61.6191630608 0.0 2.85 0.5411764706 0.168627451 0.8862745098
7 188.4700919267 46.9764202165 0.0 2.85 0.6470588235 0.1647058824 0.1647058824
8 187.9849505153 52.6954995154 0.0 2.85 1.0 0.3803921569 0.0117647059
9 188.7088668062 58.8835618884 0.0 2.85 0.4980392157 1.0 0.0
10 188.068757936 65.9307216929 0.0 2.85 1.0 0.4470588235 0.337254902
11 209.3471152505 26.7933232392 0.0 2.85 1.0 0.0784313725 0.5764705882
12 193.6148312874 50.2253708856 0.0 2.85 1.0 0.7333333333 1.0
13 193.7684734174 55.9583354844 0.0 2.85 1.0 1.0 0.0
14 193.6392323282 61.7438933061 0.0 2.85 1.0 0.0 0.0
15 166.3148487593 104.0253375526 0.0 2.85 0.5450980392 0.5137254902 0.4705882353
16 0.0 112.0 0.0 5.7 0.0 0.0 0.0
17 112.0 112.0 0.0 5.7 0.0 0.0 0.0
18 224.0 112.0 0.0 5.7 0.0 0.0 0.0
19 0.0 0.0 0.0 5.7 0.0 0.0 0.0
20 112.0 0.0 0.0 5.7 0.0 0.0 0.0
21 224.0 0.0 0.0 5.7 0.0 0.0 0.0
ITEM: TIMESTEP
20
ITEM: NUMBER OF ATOMS
22
ITEM: BOX BOUNDS ff ff ff
0.0 224.0
0.0 112.0
0.0 56.0
ITEM: ATOMS id x y z radius ColorR ColorG ColorB
0 162.313658138 55.7302059655 0.0 2.85 255.0 255.0 255.0
1 154.9721008852 31.2973440505 0.0 2.85 0.0 1.0 1.0
2 172.9737258417 46.2940165079 0.0 2.85 0.4980392157 1.0 0.831372549
3 170.6138211514 71.3551505858 0.0 2.85 0.2705882353 0.5450980392 0.4549019608
4 181.9396450773 49.328218001 0.0 2.85 0.8901960784 0.8117647059 0.3411764706
5 180.265415692 55.9330533183 0.0 2.85 0.0 0.0 1.0
6 181.8507626521 61.6265449593 0.0 2.85 0.5411764706 0.168627451 0.8862745098
7 188.4731018546 46.983091573 0.0 2.85 0.6470588235 0.1647058824 0.1647058824
8 188.0728981474 52.669024829 0.0 2.85 1.0 0.3803921569 0.0117647059
9 188.6923480354 58.9120353644 0.0 2.85 0.4980392157 1.0 0.0
10 188.0452923068 65.9835762477 0.0 2.85 1.0 0.4470588235 0.337254902
11 206.5700822068 25.5404042714 0.0 2.85 1.0 0.0784313725 0.5764705882
12 193.6139372856 50.1684082715 0.0 2.85 1.0 0.7333333333 1.0
13 193.8730641427 55.9566939814 0.0 2.85 1.0 1.0 0.0
14 193.6877504465 61.7720408942 0.0 2.85 1.0 0.0 0.0
15 160.7550712615 106.4936901346 0.0 2.85 0.5450980392 0.5137254902 0.4705882353
16 0.0 112.0 0.0 5.7 0.0 0.0 0.0
17 112.0 112.0 0.0 5.7 0.0 0.0 0.0
18 224.0 112.0 0.0 5.7 0.0 0.0 0.0
19 0.0 0.0 0.0 5.7 0.0 0.0 0.0
20 112.0 0.0 0.0 5.7 0.0 0.0 0.0
21 224.0 0.0 0.0 5.7 0.0 0.0 0.0
ITEM: TIMESTEP
21
ITEM: NUMBER OF ATOMS
22
ITEM: BOX BOUNDS ff ff ff
0.0 224.0
0.0 112.0
0.0 56.0
ITEM: ATOMS id x y z radius ColorR ColorG ColorB
0 162.3136979455 55.7127876987 0.0 2.85 255.0 255.0 255.0
1 154.023404888 29.6814732099 0.0 2.85 0.0 1.0 1.0
2 172.8012344586 45.8803773835 0.0 2.85 0.4980392157 1.0 0.831372549
3 170.2864780988 72.1382068157 0.0 2.85 0.2705882353 0.5450980392 0.4549019608